                               Psi4 1.3.2 release

  ==> Input File <==

--------------------------------------------------------------------------
import os
import sys
import numpy as np
from TCCSD import TCCSD

temp = """
    unit bohr
    0 1
    O
    H 1 {:<1.5f}
    H 1 {:<1.5f} 2 104.52
    symmetry c1
"""

set {
    BASIS         sto-3g
    REFERENCE     RHF
    SCF_TYPE      PK
    SOSCF         True
    E_CONVERGENCE 8
    MAXITER       100
    MAX_ATTEMPTS  10
    GUESS         READ
}

e = []
ecas = []

#ratios = np.array(range(7,38,1))/10.0
ratios = [1]

line = '{:<2.2f}   {:<5.10f}   {:<5.10f}'

for r in ratios:
    print('!!@!! Running {}'.format(r))
    Re = 1.809*r
    mol = geometry(temp.format(Re, Re))
    X = TCCSD(mol)
    X.TCCSD(active_space='full', CC_MAXITER=100)
    e.append(X.Ecc)
    ecas.append(X.Ecas)
    print_out('!!@!! ' + line.format(r, ecas[-1], e[-1]))

out = ''

for i in range(len(ratios)):
    out += line.format(ratios[i],ecas[i],e[i])
    out += '\n'

output = open('uhf.dat', 'w')
output.write(out)
output.close()

--------------------------------------------------------------------------

    Molecular point group: c1

    Geometry (in Bohr), charge = 0, multiplicity = 1:

       Center              X                  Y                   Z               Mass
    ------------   -----------------  -----------------  -----------------  -----------------
         O            0.000000000000     0.000000000000    -0.123917899933    15.994914619570
         H            0.000000000000    -1.430550712516     0.983333498315     1.007825032230
         H            0.000000000000     1.430550712516     0.983333498315     1.007825032230

  Charge       = 0
  Multiplicity = 1
  Basis Set: STO-3G
    Blend: STO-3G

    Orbital Energies [Eh]
    ---------------------

    Doubly Occupied:

       1A    -20.241749     2A     -1.268367     3A     -0.617891
       4A     -0.452985     5A     -0.391239

  @RHF Final Energy:   -74.96294002825698

   => Energetics <=

    Nuclear Repulsion Energy =              9.1941813074499539
    One-Electron Energy =                -122.3697814415392457
    Two-Electron Energy =                  38.2126601058323274
    Total Energy =                        -74.9629400282569662

  Dipole Moment: [D]
     X:     0.0000      Y:     0.0000      Z:     1.7257     Total:     1.7257

*** Psi4 exiting successfully. Buy a developer a beer!
