                               Psi4 1.4a1.dev163

  ==> Input File <==

--------------------------------------------------------------------------
import sys
sys.path.append('../Modules/')
from CASCCSD import CASCCSD
from TCCSD import TCCSD
from printtensor import *
from save_amp import *

molecule mol {
    0 1
    O
    H 1 0.96
    H 1 0.96 2 104.5
    symmetry c1
}

set {
    BASIS         sto-3g
    REFERENCE     RHF
    SCF_TYPE      PK
    SOSCF         True
    E_CONVERGENCE 8
    MAXITER       100
    MAX_ATTEMPTS  10
    GUESS         READ
    NUM_DETS_PRINT 100000
    FCI           True
    FROZEN_DOCC = [0]
    DETCI_FREEZE_CORE False
}

e, wfn = energy('detci', return_wfn=True)
X = CASCCSD(wfn)

print_out('\nCAS energy:      {:<5.10f}\n'.format(e))
#print_out('TCCSD    energy: {:<5.10f}\n'.format(Y.Ecc))
print_out('CASCCSD  energy: {:<5.10f}\n'.format(X.Ecc))
--------------------------------------------------------------------------

    Molecular point group: c1

    Geometry (in Angstrom), charge = 0, multiplicity = 1:

       Center              X                  Y                   Z               Mass
    ------------   -----------------  -----------------  -----------------  -----------------
         O            0.000000000000     0.000000000000    -0.065775570547    15.994914619570
         H            0.000000000000    -0.759061990794     0.521953018286     1.007825032230
         H            0.000000000000     0.759061990794     0.521953018286     1.007825032230

  Charge       = 0
  Multiplicity = 1
  Basis Set: STO-3G
    Blend: STO-3G

    Orbital Energies [Eh]
    ---------------------

    Doubly Occupied:

       1A    -20.242099     2A     -1.266998     3A     -0.616423
       4A     -0.452703     5A     -0.391074

  @RHF Final Energy:   -74.96331905260070
    Total Energy =                        -74.9633190526006956

  Dipole Moment: [D]
     X:    -0.0000      Y:     0.0000      Z:     1.7223     Total:     1.7223

   ==> Energetics <==

    SCF energy =          -74.963319052600696
    Total CI energy =     -75.013154701624060

   ==> DETCI root 0 information <==

    DETCI Root 0 energy =   -75.013154701624060

   The 441 most important determinants:

    *   1   -0.986561  (    0,    0)  1AX 2AX 3AX 4AX 5AX
    *   2    0.077318  (    8,    8)  1AX 2AX 4AX 5AX 7AX
    *   3    0.047001  (    2,    8)  1AX 2AX 3AA 4AB 5AX 6AA 7AB
    *   4    0.047001  (    8,    2)  1AX 2AX 3AB 4AA 5AX 6AB 7AA
    *   5    0.046141  (    2,    2)  1AX 2AX 3AX 5AX 6AX
    *   6    0.043420  (    3,    3)  1AX 2AX 4AX 5AX 6AX
    *   7    0.041524  (    7,    7)  1AX 2AX 3AX 5AX 7AX
    *   8    0.034506  (    3,    7)  1AX 2AX 3AB 4AA 5AX 6AA 7AB
    *   9    0.034506  (    7,    3)  1AX 2AX 3AA 4AB 5AX 6AB 7AA
    *  10   -0.033087  (    2,    4)  1AX 2AA 3AX 4AB 5AX 6AX
    *  11   -0.033087  (    4,    2)  1AX 2AB 3AX 4AA 5AX 6AX
    *  12    0.031787  (    4,    4)  1AX 3AX 4AX 5AX 6AX
    *  13   -0.031123  (    4,    8)  1AX 2AB 3AA 4AX 5AX 6AA 7AB
    *  14   -0.031123  (    8,    4)  1AX 2AA 3AB 4AX 5AX 6AB 7AA
    *  15    0.026719  (    1,    1)  1AX 2AX 3AX 4AX 6AX
    *  16   -0.020336  (    3,    9)  1AX 2AA 3AB 4AX 5AX 6AA 7AB
    *  17   -0.020336  (    9,    3)  1AX 2AB 3AA 4AX 5AX 6AB 7AA
    *  18    0.016515  (    9,    9)  1AX 3AX 4AX 5AX 7AX
    *  19    0.012670  (    0,    2)  1AX 2AX 3AX 4AA 5AX 6AB
    *  20    0.012670  (    2,    0)  1AX 2AX 3AX 4AB 5AX 6AA

*** Psi4 exiting successfully. Buy a developer a beer!
