                               Psi4 1.3.2 release

  ==> Input File <==

--------------------------------------------------------------------------
import os
import sys
import numpy as np
from CAS import CAS

molecule mol {
    0 1
    He
    He 1 2.0
    symmetry c1
}

set {
    BASIS         3-21g
    REFERENCE     RHF
    SCF_TYPE      PK
    SOSCF         True
    E_CONVERGENCE 10
}

x = CAS(mol)

x.CAS('full')

out = '{} {} {} {}'.format(len(x.determinants), x.nmo, int(x.nelec/2), int(x.nelec/2))
out += '\n'

for c,det in zip(x.Ccas, x.determinants):
    out += '{:< 5.10f}'.format(c) + ' ' + det.alpha_string()[::-1] + ' ' + det.beta_string()[::-1] + '\n'

fle = open('wfs.det', 'w')
fle.write(out)
fle.close()

--------------------------------------------------------------------------

    Molecular point group: c1

    Geometry (in Angstrom), charge = 0, multiplicity = 1:

       Center              X                  Y                   Z               Mass
    ------------   -----------------  -----------------  -----------------  -----------------
         HE           0.000000000000     0.000000000000    -1.000000000000     4.002603254130
         HE           0.000000000000     0.000000000000     1.000000000000     4.002603254130

  Charge       = 0
  Multiplicity = 1
  Basis Set: 3-21G
    Blend: 3-21G

    Orbital Energies [Eh]
    ---------------------

    Doubly Occupied:

       1A     -0.924571     2A     -0.881570

  @RHF Final Energy:    -5.66972186340473

   => Energetics <=

    Nuclear Repulsion Energy =              1.0583544213400000
    One-Electron Energy =                  -9.8438706075646323
    Two-Electron Energy =                   3.1157943228198972
    Total Energy =                         -5.6697218634047344

  Dipole Moment: [D]
     X:     0.0000      Y:     0.0000      Z:     0.0000     Total:     0.0000

*** Psi4 exiting successfully. Buy a developer a beer!
