                               Psi4 1.3.2 release

  ==> Input File <==

--------------------------------------------------------------------------
import os
import sys
import numpy as np
from HTCCSD import HTCCSD

molecule mol {
    0 1
    H       -4.2523180199      2.2841937137      0.0103070289
    H       -4.2454531865      1.5763185292     -0.0008415103
    H       -7.0858409784      2.3178981468     -0.1093346282
    H       -7.0826153072      1.6171370497     -0.0084233837
    symmetry c1
}

set {
    BASIS         3-21g
    REFERENCE     RHF
    SCF_TYPE      PK
    SOSCF         True
    E_CONVERGENCE 12
    MAXITER       100
    MAX_ATTEMPTS  10
    GUESS         READ
    R_CONVERGENCE 10
}

X = HTCCSD(mol)

X.HTCCSD('full', CC_CONV=12, MP2_GUESS=False, RELAX_T3=True)

print('CAS energy:   {:<5.10f}'.format(X.Ecas))
print('CCSD Energy:  {:<5.10f}'.format(energy('ccsd')))
#print('CCSDT (MRCC): -5.7381125680')
--------------------------------------------------------------------------

    Molecular point group: c1
  Charge       = 0
  Multiplicity = 1
  Basis Set: 3-21G
    Blend: 3-21G
  @RHF Final Energy:    -2.24410576970085
    Total Energy =                         -2.2441057697008535
    Molecular point group: c1

    Geometry (in Angstrom), charge = 0, multiplicity = 1:

       Center              X                  Y                   Z               Mass
    ------------   -----------------  -----------------  -----------------  -----------------
         H            1.414238853100     0.335306853850     0.037380152225     1.007825032230
         H            1.421103686500    -0.372568330650     0.026231613025     1.007825032230
         H           -1.419284105400     0.369011286950    -0.082261504875     1.007825032230
         H           -1.416058434200    -0.331749810150     0.018649739625     1.007825032230

  Charge       = 0
  Multiplicity = 1
  Basis Set: 3-21G
    Blend: 3-21G

    Orbital Energies [Eh]
    ---------------------

    Doubly Occupied:

       1A     -0.612143     2A     -0.591119

  @RHF Final Energy:    -2.24410576970085

   => Energetics <=

    Nuclear Repulsion Energy =              2.2300491131035787
    One-Electron Energy =                  -6.5417867594807237
    Two-Electron Energy =                   2.0676318766762933
    Total Energy =                         -2.2441057697008513

  Dipole Moment: [D]
     X:    -0.0000      Y:     0.0000      Z:     0.0001     Total:     0.0001

      * MP2 total energy                      =   -2.278243649100436
      * CCSD total energy                     =   -2.292669788432126
*** Psi4 exiting successfully. Buy a developer a beer!
