                               Psi4 1.3.2 release

  ==> Input File <==

--------------------------------------------------------------------------
import os
import sys
import numpy as np
from HTCCSD import HTCCSD

molecule mol {
    0 1
    He
    He 1 2.0
    He 1 2.0 2 120.0
    He 3 2.0 2 120.0 1 180.0
    symmetry c1
}

set {
    BASIS         6-31g
    REFERENCE     RHF
    SCF_TYPE      PK
    SOSCF         True
    E_CONVERGENCE 8
    MAXITER       100
    MAX_ATTEMPTS  10
    GUESS         READ
}

X = HTCCSD(mol)

X.HTCCSD('full', CC_CONV=8)

print('CAS energy:   {:<5.10f}'.format(X.Ecas))
print('CCSD Energy:  {:<5.10f}'.format(energy('ccsd')))
--------------------------------------------------------------------------

    Molecular point group: c1
  Charge       = 0
  Multiplicity = 1
  Basis Set: 6-31G
    Blend: 6-31G
  @RHF Final Energy:   -11.41441238254959
    Total Energy =                        -11.4144123825495889
    Molecular point group: c1

    Geometry (in Angstrom), charge = 0, multiplicity = 1:

       Center              X                  Y                   Z               Mass
    ------------   -----------------  -----------------  -----------------  -----------------
         HE           1.366025403784     0.000000000000     0.000000000000     4.002603254130
         HE           1.366025403784    -2.000000000000     0.000000000000     4.002603254130
         HE          -0.366025403784     1.000000000000     0.000000000000     4.002603254130
         HE          -2.366025403784     1.000000000000     0.000000000000     4.002603254130

  Charge       = 0
  Multiplicity = 1
  Basis Set: 6-31G
    Blend: 6-31G

    Orbital Energies [Eh]
    ---------------------

    Doubly Occupied:

       1A     -0.948135     2A     -0.927285     3A     -0.900172
       4A     -0.877016

  @RHF Final Energy:   -11.41441238255128

   => Energetics <=

    Nuclear Repulsion Energy =              4.7760038376920440
    One-Electron Energy =                 -25.0756166190661745
    Two-Electron Energy =                   8.8852003988228496
    Total Energy =                        -11.4144123825512800

  Dipole Moment: [D]
     X:     0.0000      Y:    -0.0000      Z:     0.0000     Total:     0.0000

      * MP2 total energy                      =  -11.458966796588642
      * CCSD total energy                     =  -11.473996154503075
*** Psi4 exiting successfully. Buy a developer a beer!
