                               Psi4 1.3.2 release

  ==> Input File <==

--------------------------------------------------------------------------
import os
import sys
import numpy as np
from HTCCSD import HTCCSD

molecule mol {
    0 1
    He
    He 1 2.0
    He 1 2.0 2 120.0
    He 3 2.0 2 120.0 1 180.0
    He 2 2.0 3 120.0 1 180.0
    symmetry c1
}

set {
    BASIS         6-31g
    REFERENCE     RHF
    SCF_TYPE      PK
    SOSCF         True
    E_CONVERGENCE 8
    MAXITER       100
    MAX_ATTEMPTS  10
    GUESS         READ
}

X = HTCCSD(mol)

X.HTCCSD([2,3,4,5,6,7], CC_CONV=8)

print('CAS energy:   {:<5.10f}'.format(X.Ecas))
print('CCSD Energy:  {:<5.10f}'.format(energy('ccsd')))
--------------------------------------------------------------------------

    Molecular point group: c1
  Charge       = 0
  Multiplicity = 1
  Basis Set: 6-31G
    Blend: 6-31G
  @RHF Final Energy:   -14.26749304229816
    Total Energy =                        -14.2674930422981596
    Molecular point group: c1

    Geometry (in Angstrom), charge = 0, multiplicity = 1:

       Center              X                  Y                   Z               Mass
    ------------   -----------------  -----------------  -----------------  -----------------
         HE           0.000000000000     0.000000000000    -1.492820323028     4.002603254130
         HE           0.000000000000    -1.732050807569    -0.492820323028     4.002603254130
         HE           0.000000000000     1.732050807569    -0.492820323028     4.002603254130
         HE           0.000000000000     2.732050807569     1.239230484541     4.002603254130
         HE           0.000000000000    -2.732050807569     1.239230484541     4.002603254130

  Charge       = 0
  Multiplicity = 1
  Basis Set: 6-31G
    Blend: 6-31G

    Orbital Energies [Eh]
    ---------------------

    Doubly Occupied:

       1A     -0.950376     2A     -0.935261     3A     -0.914094
       4A     -0.891360     5A     -0.874213

  @RHF Final Energy:   -14.26749304230065

   => Energetics <=

    Nuclear Repulsion Energy =              7.2116422270634288
    One-Electron Energy =                 -33.8276630361083974
    Two-Electron Energy =                  12.3485277667443221
    Total Energy =                        -14.2674930423006465

  Dipole Moment: [D]
     X:     0.0000      Y:    -0.0000      Z:    -0.0000     Total:     0.0000

      * MP2 total energy                      =  -14.323165650582096
      * CCSD total energy                     =  -14.341937597263144
*** Psi4 exiting successfully. Buy a developer a beer!
