                               Psi4 1.3.2 release

  ==> Input File <==

--------------------------------------------------------------------------
import os
import sys
import numpy as np
from HTCCSD import HTCCSD

molecule mol {
    0 1
    He
    He 1 2.0
    He 1 2.0 2 120.0
    symmetry c1
}

set {
    BASIS         6-31g
    REFERENCE     RHF
    SOSCF         True
    SCF_TYPE      PK
    E_CONVERGENCE 8
    MAXITER       100
    MAX_ATTEMPTS  10
    GUESS         READ
}

X = HTCCSD(mol)

X.HTCCSD('full', CC_CONV = 10, RELAX_T3T1 = False)

print('CAS energy:   {:<5.10f}'.format(X.Ecas))
print('CCSD Energy:  {:<5.10f}'.format(energy('ccsd')))
--------------------------------------------------------------------------

    Molecular point group: c1
  Charge       = 0
  Multiplicity = 1
  Basis Set: 6-31G
    Blend: 6-31G
  @RHF Final Energy:    -8.56133168159272
    Total Energy =                         -8.5613316815927227
    Molecular point group: c1

    Geometry (in Angstrom), charge = 0, multiplicity = 1:

       Center              X                  Y                   Z               Mass
    ------------   -----------------  -----------------  -----------------  -----------------
         HE           0.000000000000     0.000000000000    -0.666666666667     4.002603254130
         HE           0.000000000000    -1.732050807569     0.333333333333     4.002603254130
         HE           0.000000000000     1.732050807569     0.333333333333     4.002603254130

  Charge       = 0
  Multiplicity = 1
  Basis Set: 6-31G
    Blend: 6-31G

    Orbital Energies [Eh]
    ---------------------

    Doubly Occupied:

       1A     -0.944126     2A     -0.913791     3A     -0.882015

  @RHF Final Energy:    -8.56133168159359

   => Energetics <=

    Nuclear Repulsion Energy =              2.7277500527386791
    One-Electron Energy =                 -17.0982997215493882
    Two-Electron Energy =                   5.8092179872171199
    Total Energy =                         -8.5613316815935896

  Dipole Moment: [D]
     X:     0.0000      Y:     0.0000      Z:    -0.0000     Total:     0.0000

      * MP2 total energy                      =   -8.594767906066050
      * CCSD total energy                     =   -8.606054675789151
*** Psi4 exiting successfully. Buy a developer a beer!
