                               Psi4 1.3.2 release

  ==> Input File <==

--------------------------------------------------------------------------
import os
import sys
import numpy as np
from HTCCSD import HTCCSD

molecule mol {
    0 1
    He
    He 1 2.0
    He 1 2.0 2 120.0
    symmetry c1
}

set {
    BASIS         3-21g
    REFERENCE     RHF
    SCF_TYPE      PK
    SOSCF         True
    E_CONVERGENCE 8
    MAXITER       100
    MAX_ATTEMPTS  10
    GUESS         READ
}

X = HTCCSD(mol)

X.HTCCSD('full', CC_CONV=8)

print('CCSD Energy: {:<5.10f}'.format(energy('ccsd')))
--------------------------------------------------------------------------

    Molecular point group: c1
  Charge       = 0
  Multiplicity = 1
  Basis Set: 3-21G
    Blend: 3-21G
  @RHF Final Energy:    -8.50376283839864
    Total Energy =                         -8.5037628383986448
    Molecular point group: c1

    Geometry (in Angstrom), charge = 0, multiplicity = 1:

       Center              X                  Y                   Z               Mass
    ------------   -----------------  -----------------  -----------------  -----------------
         HE           0.000000000000     0.000000000000    -0.666666666667     4.002603254130
         HE           0.000000000000    -1.732050807569     0.333333333333     4.002603254130
         HE           0.000000000000     1.732050807569     0.333333333333     4.002603254130

  Charge       = 0
  Multiplicity = 1
  Basis Set: 3-21G
    Blend: 3-21G

    Orbital Energies [Eh]
    ---------------------

    Doubly Occupied:

       1A     -0.933053     2A     -0.903387     3A     -0.872214

  @RHF Final Energy:    -8.50376283839870

   => Energetics <=

    Nuclear Repulsion Energy =              2.7277500527386791
    One-Electron Energy =                 -17.0457187020288359
    Two-Electron Energy =                   5.8142058108914600
    Total Energy =                         -8.5037628383986963

  Dipole Moment: [D]
     X:     0.0000      Y:    -0.0000      Z:    -0.0000     Total:     0.0000

      * MP2 total energy                      =   -8.538212367279900
      * CCSD total energy                     =   -8.548386532219839
*** Psi4 exiting successfully. Buy a developer a beer!
