                               Psi4 1.3.2 release

  ==> Input File <==

--------------------------------------------------------------------------
import os
import sys
import numpy as np
from HTCCSD import HTCCSD

molecule mol {
    0 1
    H
    Li 1 0.9
    symmetry c1
}

set {
    BASIS         sto-3g
    REFERENCE     RHF
    SCF_TYPE      PK
    SOSCF         True
    E_CONVERGENCE 12
    MAXITER       100
    MAX_ATTEMPTS  10
    GUESS         READ
    R_CONVERGENCE 10
}

X = HTCCSD(mol)

X.HTCCSD('full', CC_CONV=8, MP2_GUESS=False, RELAX_T3=True)

print('CAS energy:   {:<5.10f}'.format(X.Ecas))
print('CCSD Energy:  {:<5.10f}'.format(energy('ccsd')))
--------------------------------------------------------------------------

    Molecular point group: c1
  Charge       = 0
  Multiplicity = 1
  Basis Set: STO-3G
    Blend: STO-3G
  @RHF Final Energy:    -7.70575334045688
    Total Energy =                         -7.7057533404568783
    Molecular point group: c1

    Geometry (in Angstrom), charge = 0, multiplicity = 1:

       Center              X                  Y                   Z               Mass
    ------------   -----------------  -----------------  -----------------  -----------------
         H            0.000000000000     0.000000000000    -0.786956390889     1.007825032230
         LI           0.000000000000     0.000000000000     0.113043609111     7.016003436600

  Charge       = 0
  Multiplicity = 1
  Basis Set: STO-3G
    Blend: STO-3G

    Orbital Energies [Eh]
    ---------------------

    Doubly Occupied:

       1A     -2.396141     2A     -0.313846

  @RHF Final Energy:    -7.70575334045688

   => Energetics <=

    Nuclear Repulsion Energy =              1.7639240355666665
    One-Electron Energy =                 -13.5193792680716776
    Two-Electron Energy =                   4.0497018920481347
    Total Energy =                         -7.7057533404568757

  Dipole Moment: [D]
     X:     0.0000      Y:     0.0000      Z:     4.8413     Total:     4.8413

      * MP2 total energy                      =   -7.717559683208775
      * CCSD total energy                     =   -7.723418127344433
*** Psi4 exiting successfully. Buy a developer a beer!
