                               Psi4 1.3.2 release

  ==> Input File <==

--------------------------------------------------------------------------
import os
import sys
import numpy as np
from HTCCSD import HTCCSD

molecule mol {
    unit bohr
    0 1
    N
    N 1 2.074
    symmetry c1
}

set {
    BASIS         cc-pvdz
    REFERENCE     RHF
    SCF_TYPE      PK
    SOSCF         True
    E_CONVERGENCE 8
    MAXITER       100
    MAX_ATTEMPTS  10
    GUESS         READ
}

#X = HTCCSD(mol)

#X.HTCCSD([4,5,6,7,8,9], CC_CONV=8)

#print('CAS energy:   {:<5.10f}'.format(X.Ecas))
#print('CCSD Energy: {:<5.10f}'.format(energy('ccsd')))
print('CCSD(T) Energy: {:<5.10f}'.format(energy('ccsd(t)')))
--------------------------------------------------------------------------

    Molecular point group: c1

    Geometry (in Bohr), charge = 0, multiplicity = 1:

       Center              X                  Y                   Z               Mass
    ------------   -----------------  -----------------  -----------------  -----------------
         N            0.000000000000     0.000000000000    -1.037000000000    14.003074004430
         N            0.000000000000     0.000000000000     1.037000000000    14.003074004430

  Charge       = 0
  Multiplicity = 1
  Basis Set: CC-PVDZ
    Blend: CC-PVDZ

    Orbital Energies [Eh]
    ---------------------

    Doubly Occupied:

       1A    -15.686380     2A    -15.682974     3A     -1.471331
       4A     -0.774043     5A     -0.626242     6A     -0.608230
       7A     -0.608230

  @RHF Final Energy:  -108.95415346689623

   => Energetics <=

    Nuclear Repulsion Energy =             23.6258437801350070
    One-Electron Energy =                -194.2451325030553448
    Two-Electron Energy =                  61.6651352560241151
    Total Energy =                       -108.9541534668962299

  Dipole Moment: [D]
     X:    -0.0000      Y:    -0.0000      Z:    -0.0000     Total:     0.0000

      * MP2 total energy                      = -109.264694946944431
      * CCSD total energy                     = -109.267194272236978
      * CCSD(T) total energy                  = -109.279124824215515
*** Psi4 exiting successfully. Buy a developer a beer!
