                               Psi4 1.3.2 release

  ==> Input File <==

--------------------------------------------------------------------------
import os
import sys
import numpy as np
from HTCCSD import HTCCSD

molecule mol {
    unit bohr
    0 1
    N
    N 1 2.074
    symmetry c1
}

set {
    BASIS         3-21g
    REFERENCE     RHF
    SCF_TYPE      PK
    SOSCF         True
    E_CONVERGENCE 8
    MAXITER       100
    MAX_ATTEMPTS  10
    GUESS         READ
}

X = HTCCSD(mol)

X.HTCCSD([4,5,6,7,8,9], CC_CONV=8)

print('CCSD Energy: {:<5.10f}'.format(energy('ccsd')))
--------------------------------------------------------------------------

    Molecular point group: c1
  Charge       = 0
  Multiplicity = 1
  Basis Set: 3-21G
    Blend: 3-21G
  @RHF Final Energy:  -108.30028252903122
    Total Energy =                       -108.3002825290312217
    Molecular point group: c1

    Geometry (in Bohr), charge = 0, multiplicity = 1:

       Center              X                  Y                   Z               Mass
    ------------   -----------------  -----------------  -----------------  -----------------
         N            0.000000000000     0.000000000000    -1.037000000000    14.003074004430
         N            0.000000000000     0.000000000000     1.037000000000    14.003074004430

  Charge       = 0
  Multiplicity = 1
  Basis Set: 3-21G
    Blend: 3-21G

    Orbital Energies [Eh]
    ---------------------

    Doubly Occupied:

       1A    -15.614903     2A    -15.614294     3A     -1.507641
       4A     -0.761700     5A     -0.614451     6A     -0.613580
       7A     -0.613580

  @RHF Final Energy:  -108.30028252903112

   => Energetics <=

    Nuclear Repulsion Energy =             23.6258437801350070
    One-Electron Energy =                -193.1719551001158948
    Two-Electron Energy =                  61.2458287909497727
    Total Energy =                       -108.3002825290311222

  Dipole Moment: [D]
     X:     0.0000      Y:    -0.0000      Z:     0.0000     Total:     0.0000

      * MP2 total energy                      = -108.536686099190447
      * CCSD total energy                     = -108.526639375434613
*** Psi4 exiting successfully. Buy a developer a beer!
