                               Psi4 1.3.2 release

  ==> Input File <==

--------------------------------------------------------------------------
import os
import sys
import numpy as np
sys.path.append('./')
from HTCCSD import HTCCSD

molecule mol {
    0 1
    O
    H 1 0.96
    H 1 0.96 2 104.5
    symmetry c1
}

set {
    BASIS         cc-pvdz
    REFERENCE     RHF
    SCF_TYPE      PK
    SOSCF         True
    E_CONVERGENCE 8
    MAXITER       100
    MAX_ATTEMPTS  10
    GUESS         READ
}

X = HTCCSD(mol)

X.HTCCSD([2,3,4,5,6,7], CC_CONV=8)

print('CAS energy:   {:<5.10f}'.format(X.Ecas))
print('CCSD Energy: {:<5.10f}'.format(energy('ccsd')))

s = np.argsort(abs(X.Ccas))[::-1]
data = X.Ccas[s]
dets = np.array(X.determinants)[s]
data = -1*data

count = 1
for i, d in zip(data, dets):
    if abs(i) > 1e-10:
        print('{}   {:< 5.6f}'.format(count,i))
        print(d)
        count += 1
--------------------------------------------------------------------------

    Molecular point group: c1
  Charge       = 0
  Multiplicity = 1
  Basis Set: CC-PVDZ
    Blend: CC-PVDZ
  @RHF Final Energy:   -76.02665366188810
    Total Energy =                        -76.0266536618881048
    Molecular point group: c1

    Geometry (in Angstrom), charge = 0, multiplicity = 1:

       Center              X                  Y                   Z               Mass
    ------------   -----------------  -----------------  -----------------  -----------------
         O            0.000000000000     0.000000000000    -0.065775570547    15.994914619570
         H            0.000000000000    -0.759061990794     0.521953018286     1.007825032230
         H            0.000000000000     0.759061990794     0.521953018286     1.007825032230

  Charge       = 0
  Multiplicity = 1
  Basis Set: CC-PVDZ
    Blend: CC-PVDZ

    Orbital Energies [Eh]
    ---------------------

    Doubly Occupied:

       1A    -20.550919     2A     -1.335305     3A     -0.697799
       4A     -0.566090     5A     -0.492954

  @RHF Final Energy:   -76.02665366188850

   => Energetics <=

    Nuclear Repulsion Energy =              9.1681932964243487
    One-Electron Energy =                -123.1035619556652136
    Two-Electron Energy =                  37.9087149973523623
    Total Energy =                        -76.0266536618885027

  Dipole Moment: [D]
     X:    -0.0000      Y:    -0.0000      Z:     2.0592     Total:     2.0592

      * MP2 total energy                      =  -76.230808461298579
      * CCSD total energy                     =  -76.240134158759162
*** Psi4 exiting successfully. Buy a developer a beer!
